#INFO: **** input file is /projects/xuwa0145/projects/AuH2/pyscf_eomcc/dyall_v3z/v3z_62orb.py ****
import zquatev
import time
from functools import reduce
import numpy
import scipy.linalg
from pyscf import lib
from pyscf import gto
from pyscf.lib import logger
from pyscf.scf import hf
from pyscf.scf import _vhf
from pyscf.scf import chkfile
from pyscf.data import nist
from pyscf import __config__
from pyscf import scf
from pyscf import lib
from pyscf import x2c
from zccsd import zccsd
import x2camf, fcidump_rel
import copy
from pyscf import lib
lib.num_threads(28)
numpy.set_printoptions(suppress=True, linewidth=200)
c = nist.LIGHT_SPEED
mol = gto.M(atom='''
Au 0 0 0
H 0.0 0.0 1.647
H 0.0 0.0 -1.647
''', 
basis='dyallv3z', 
charge = -1, verbose=4)
#mf = scf.DHF(mol)
#mf.nopen = 2
#mf.nact = 1
#e_dhf = mf.kernel()

mf_x2c = x2camf.X2CAMF_RHF(mol, with_gaunt=True, with_breit=False, prog='sph_atm')
#mf_x2c.nopen = 6
#mf_x2c.nact = 3
e_x2c = mf_x2c.kernel()
core = numpy.arange(68)
virt = numpy.arange(68+124, mol.nao_2c())
mycc = zccsd.ZCCSD(mf_x2c, frozen=numpy.hstack((core, virt)))
mycc.kernel()
e_56 = mycc.ipccsd(nroots=12)
exit()
virt = numpy.arange(68+82, mol.nao_2c())
mycc = zccsd.ZCCSD(mf_x2c, frozen=numpy.hstack((core, virt)))
mycc.kernel()
e_56 = mycc.ipccsd(nroots=12)
nvirt = 0
for ene in mf_x2c.mo_energy:
    if ene < 10.0:
        nvirt += 1 
virt = numpy.arange(nvirt,mol.nao_2c())
for mo_occ, mo_ene in zip(mf_x2c.mo_occ, mf_x2c.mo_energy):
    print(mo_occ, mo_ene)
mycc = zccsd.ZCCSD(mf_x2c, frozen=numpy.hstack((core,virt)))
mycc.kernel()
e_full, v = mycc.ipccsd(nroots=12)
print(e_full)
print(e_56)
exit()
for mo_occ, mo_ene in zip(mf_x2c.mo_occ, mf_x2c.mo_energy):
    print(mo_occ, mo_ene)
fcidump_rel.from_x2c(mf_x2c, 34, 56, filename='FCIDUMP')

exit(0)
#fcidump_rel.from_dhf(mf, 1, 4, filename='FCIDUMP')
import os
os.system('~/X4C/Dice/ZDice2 input.dat')
#INFO: ******************** input file end ********************


System: uname_result(system='Linux', node='bnode0306.rc.int.colorado.edu', release='3.10.0-693.37.4.el7.x86_64', version='#1 SMP Fri Aug 10 12:34:55 EDT 2018', machine='x86_64', processor='x86_64')  Threads 28
Python 3.7.11 (default, Jul 27 2021, 14:32:16) 
[GCC 7.5.0]
numpy 1.21.5  scipy 1.7.3
Date: Wed Jun 29 13:08:17 2022
PySCF version 2.0.1
PySCF path  /home/xuwa0145/tools/pyscf_fresh
GIT ORIG_HEAD 679d8206215afb075ab26bf457024d63115dde0a
GIT HEAD (branch master) b815acf3792a706920133eade3dbeb6d46c7db92

[CONFIG] conf_file None
[INPUT] verbose = 4
[INPUT] num. atoms = 3
[INPUT] num. electrons = 82
[INPUT] charge = -1
[INPUT] spin (= nelec alpha-beta = 2S) = 0
[INPUT] symmetry False subgroup None
[INPUT] Mole.unit = angstrom
[INPUT]  1 Au     0.000000000000   0.000000000000   0.000000000000 AA    0.000000000000   0.000000000000   0.000000000000 Bohr
[INPUT]  2 H      0.000000000000   0.000000000000   1.647000000000 AA    0.000000000000   0.000000000000   3.112378927159 Bohr
[INPUT]  3 H      0.000000000000   0.000000000000  -1.647000000000 AA    0.000000000000   0.000000000000  -3.112378927159 Bohr

nuclear repulsion = 50.9256757321311
number of shells = 106
number of NR pGTOs = 312
number of NR cGTOs = 312
basis = dyallv3z
ecp = {}
CPU time:         0.71


******** <class 'x2camf.X2CAMF_RHF'> ********
method = X2CAMF_RHF-RHF-SCF
initial guess = minao
damping factor = 0
level_shift factor = 0
DIIS = <class 'pyscf.scf.diis.CDIIS'>
diis_start_cycle = 1
diis_space = 8
SCF conv_tol = 1e-09
SCF conv_tol_grad = None
SCF max_cycles = 50
direct_scf = True
direct_scf_tol = 1e-13
chkfile to save SCF result = /rc_scratch/xuwa0145/tmpg1trbst_
max_memory 4000 MB (current use 98 MB)


******** <class 'x2camf.X2CAMF'> ********
approx = 1e
xuncontract = 1
Set gradient conv threshold to 3.16228e-05
AU
AU:dyallv3z
H
H:dyallv3z
H
H:dyallv3z
0
1
0
index 0: 0
index 1: 1
index 2: 1
All unique calculations are:
AU	AU:dyallv3z
H	H:dyallv3z
amfi Method input: Dirac Hatree Fock
with Gaunt


Total number of uncontracted spinor: 544
Total number of irreducible representation: 50

Initializing Dirac-HF for AU atom.
Did NOT find %occAMFI in amf_input
Using default occupation number for AU
Occupation number vector:
l	2j	2mj	Occ
0	1	-1	  1   1   1   1   1 0.5   0   0   0   0   0   0   0   0   0   0   0   0   0   0   0   0   0   0   0   0   0   0   0   0
0	1	1	  1   1   1   1   1 0.5   0   0   0   0   0   0   0   0   0   0   0   0   0   0   0   0   0   0   0   0   0   0   0   0
1	1	-1	1 1 1 1 0 0 0 0 0 0 0 0 0 0 0 0 0 0 0 0 0 0 0 0
1	1	1	1 1 1 1 0 0 0 0 0 0 0 0 0 0 0 0 0 0 0 0 0 0 0 0
1	3	-3	1 1 1 1 0 0 0 0 0 0 0 0 0 0 0 0 0 0 0 0 0 0 0 0
1	3	-1	1 1 1 1 0 0 0 0 0 0 0 0 0 0 0 0 0 0 0 0 0 0 0 0
1	3	1	1 1 1 1 0 0 0 0 0 0 0 0 0 0 0 0 0 0 0 0 0 0 0 0
1	3	3	1 1 1 1 0 0 0 0 0 0 0 0 0 0 0 0 0 0 0 0 0 0 0 0
2	3	-3	1 1 1 0 0 0 0 0 0 0 0 0 0 0 0
2	3	-1	1 1 1 0 0 0 0 0 0 0 0 0 0 0 0
2	3	1	1 1 1 0 0 0 0 0 0 0 0 0 0 0 0
2	3	3	1 1 1 0 0 0 0 0 0 0 0 0 0 0 0
2	5	-5	1 1 1 0 0 0 0 0 0 0 0 0 0 0 0
2	5	-3	1 1 1 0 0 0 0 0 0 0 0 0 0 0 0
2	5	-1	1 1 1 0 0 0 0 0 0 0 0 0 0 0 0
2	5	1	1 1 1 0 0 0 0 0 0 0 0 0 0 0 0
2	5	3	1 1 1 0 0 0 0 0 0 0 0 0 0 0 0
2	5	5	1 1 1 0 0 0 0 0 0 0 0 0 0 0 0
3	5	-5	1 0 0 0 0 0 0 0 0 0 0
3	5	-3	1 0 0 0 0 0 0 0 0 0 0
3	5	-1	1 0 0 0 0 0 0 0 0 0 0
3	5	1	1 0 0 0 0 0 0 0 0 0 0
3	5	3	1 0 0 0 0 0 0 0 0 0 0
3	5	5	1 0 0 0 0 0 0 0 0 0 0
3	7	-7	1 0 0 0 0 0 0 0 0 0 0
3	7	-5	1 0 0 0 0 0 0 0 0 0 0
3	7	-3	1 0 0 0 0 0 0 0 0 0 0
3	7	-1	1 0 0 0 0 0 0 0 0 0 0
3	7	1	1 0 0 0 0 0 0 0 0 0 0
3	7	3	1 0 0 0 0 0 0 0 0 0 0
3	7	5	1 0 0 0 0 0 0 0 0 0 0
3	7	7	1 0 0 0 0 0 0 0 0 0 0
4	7	-7	
4	7	-5	
4	7	-3	
4	7	-1	
4	7	1	
4	7	3	
4	7	5	
4	7	7	
4	9	-9	
4	9	-7	
4	9	-5	
4	9	-3	
4	9	-1	
4	9	1	
4	9	3	
4	9	5	
4	9	7	
4	9	9	
Highest occupied irrep: 32
Total number of electrons: 79

Maximum memory cost (2e part) in SCF and amfi calculation: 1.01569 GB.
1e-integral finished in 0 seconds.
2e-integral finished in 35.9 seconds.
2e-integral-Gaunt finished in 29.51 seconds.


Start Dirac Hartree-Fock iterations...
with SCF convergence = 1e-08

Iter #1 maximum density difference: 49.6025
Iter #2 maximum density difference: 28.8998
Iter #3 maximum density difference: 28.2743
Iter #4 maximum density difference: 6.41075
Iter #5 maximum density difference: 6.70339
Iter #6 maximum density difference: 0.56907
Iter #7 maximum density difference: 0.418855
Iter #8 maximum density difference: 0.0785074
Iter #9 maximum density difference: 0.00687811
Iter #10 maximum density difference: 0.00178864
Iter #11 maximum density difference: 0.00101014
Iter #12 maximum density difference: 0.000187763
Iter #13 maximum density difference: 5.07001e-05
Iter #14 maximum density difference: 2.7759e-06
Iter #15 maximum density difference: 1.1978e-06
Iter #16 maximum density difference: 4.03354e-07
Iter #17 maximum density difference: 1.93886e-08
Iter #18 maximum density difference: 1.0699e-09

SCF converges after 18 iterations.

	Orbital		Energy(in hartree)
	*******		******************
	1		-2976.38769025737
	2		-531.156828313647
	3		-127.920803293356
	4		-29.1183632069159
	5		-4.69359997496281
	6		-0.149922718006351
	7		0.136226386640389
	8		0.681770717088499
	9		2.61191428965697
	10		8.50288550011229
	11		24.490197316314
	12		65.2493166593201
	13		161.496658670172
	14		376.783329490545
	15		835.026946525074
	16		1754.22125036894
	17		3483.1542302975
	18		6521.959888653
	19		11533.5320143746
	20		19379.2227597968
	21		31232.4848736464
	22		48781.8310309185
	23		74612.448442374
	24		112731.430416159
	25		169779.871641847
	26		256592.46705006
	27		393569.772152205
	28		616148.332917486
	29		1014876.24961276
	30		1753769.04260694
	1		-507.095128559628
	2		-117.446290953416
	3		-24.6642569664846
	4		-3.19131879297641
	5		0.0421470590587812
	6		0.165317820952832
	7		0.609570187976176
	8		2.31935512013915
	9		7.97278558030431
	10		24.6693068326347
	11		70.7050193810523
	12		188.243306441589
	13		472.127204287396
	14		1125.04201544215
	15		2550.94507514039
	16		5502.06138103292
	17		11290.8960864644
	18		22138.6651941597
	19		41957.3666222071
	20		78088.3596824926
	21		145430.979525781
	22		275072.566463681
	23		545944.873338373
	24		1133991.07333692
	1		-440.228044504327
	2		-102.476367098959
	3		-21.030584415131
	4		-2.5678007550817
	5		0.0461627291404841
	6		0.183007861212937
	7		0.678196362185292
	8		2.59793342531644
	9		8.85773139063584
	10		27.2479106371586
	11		77.594346379964
	12		205.395251139687
	13		513.055727541932
	14		1220.18426801362
	15		2769.93856650964
	16		5999.9533723111
	17		12385.6082505942
	18		24438.2472076698
	19		46597.5183880089
	20		87294.2821757069
	21		163603.714798763
	22		312548.443244011
	23		622296.223077453
	24		1334308.77883959
	1		-85.7884342795462
	2		-13.8556491128819
	3		-0.507399593363803
	4		0.443251088303637
	5		1.76237840861325
	6		5.67944775542135
	7		16.913401056583
	8		47.008521693304
	9		121.440494873048
	10		296.396240070046
	11		699.073831280375
	12		1628.52779575675
	13		3814.42793740759
	14		9151.3726352305
	15		23606.1941553963
	1		-82.6286389476135
	2		-13.1744514907792
	3		-0.443890310884974
	4		0.455251134619984
	5		1.81445457279213
	6		5.83027541057727
	7		17.3246415338444
	8		48.051784933253
	9		123.956032487273
	10		302.51819739977
	11		714.798890085057
	12		1671.79410791552
	13		3942.29957568567
	14		9561.18371992331
	15		25177.2373271569
	1		-3.88886674761645
	2		0.677235107883244
	3		1.78224770785716
	4		4.7557600347536
	5		12.9533216794106
	6		32.1737111800879
	7		75.1630062682628
	8		172.016982290105
	9		399.356947685243
	10		977.792486905129
	11		2719.62954225893
	1		-3.74688569231986
	2		0.673987832266913
	3		1.78500716380443
	4		4.79649353141516
	5		13.0453939913343
	6		32.3637372128371
	7		75.6395501068872
	8		173.298457904575
	9		403.041044152728
	10		990.228783522084
	11		2780.76458832148
Final DHF energy is -19015.2061462201 hartree.
DHF iterations finished in 55.15 seconds.


ATTENTION! Since gaunt terms are included in SCF, they are automatically calculated in amfi integrals.


Total number of uncontracted spinor: 40
Total number of irreducible representation: 18

Initializing Dirac-HF for H atom.
Did NOT find %occAMFI in amf_input
Using default occupation number for H
Occupation number vector:
l	2j	2mj	Occ
0	1	-1	0.5   0   0   0   0   0   0   0   0
0	1	1	0.5   0   0   0   0   0   0   0   0
1	1	-1	
1	1	1	
1	3	-3	
1	3	-1	
1	3	1	
1	3	3	
2	3	-3	
2	3	-1	
2	3	1	
2	3	3	
2	5	-5	
2	5	-3	
2	5	-1	
2	5	1	
2	5	3	
2	5	5	
Highest occupied irrep: 2
Total number of electrons: 1

Maximum memory cost (2e part) in SCF and amfi calculation: 0.00111056864261627 GB.
1e-integral finished in 0 seconds.
2e-integral finished in 0.02 seconds.
2e-integral-Gaunt finished in 0.09 seconds.


Start Dirac Hartree-Fock iterations...
with SCF convergence = 1e-08

Iter #1 maximum density difference: 0.0502673048117581

SCF converges after 1 iterations.

	Orbital		Energy(in hartree)
	*******		******************
	1		-0.500004787483762
	2		-0.0850672113072289
	3		0.411413566782255
	4		1.91963776885519
	5		6.49124019725774
	6		21.2196170548258
	7		74.307435014668
	8		305.056417603089
	9		1720.1502456651
Final DHF energy is -0.343748010620561 hartree.
DHF iterations finished in 0.01 seconds.


ATTENTION! Since gaunt terms are included in SCF, they are automatically calculated in amfi integrals.

/home/xuwa0145/tools/amfso/amf_pyscf.exe
init E= -18953.112486366
HOMO 82 = -0.24875131438  LUMO 83 = 0.0429913779459
cycle= 1 E= -18984.7064321754  delta_E= -31.6  |g|= 5.82  |ddm|= 0.908
HOMO 82 = -0.124505730547  LUMO 83 = 0.18951485964
cycle= 2 E= -18984.7436076863  delta_E= -0.0372  |g|= 0.654  |ddm|= 0.25
HOMO 82 = -0.122749188072  LUMO 83 = 0.18821150555
cycle= 3 E= -18984.7443762737  delta_E= -0.000769  |g|= 0.628  |ddm|= 0.107
HOMO 82 = -0.134580250753  LUMO 83 = 0.187621342971
cycle= 4 E= -18984.7487964928  delta_E= -0.00442  |g|= 0.0347  |ddm|= 0.055
HOMO 82 = -0.131519717829  LUMO 83 = 0.187708781737
cycle= 5 E= -18984.748935102  delta_E= -0.000139  |g|= 0.0215  |ddm|= 0.0197
HOMO 82 = -0.133000198141  LUMO 83 = 0.18760119238
cycle= 6 E= -18984.7489782847  delta_E= -4.32e-05  |g|= 0.00361  |ddm|= 0.0109
HOMO 82 = -0.132651468738  LUMO 83 = 0.18763377009
cycle= 7 E= -18984.7489836131  delta_E= -5.33e-06  |g|= 0.000732  |ddm|= 0.00644
HOMO 82 = -0.132570975733  LUMO 83 = 0.187647378247
cycle= 8 E= -18984.7489838232  delta_E= -2.1e-07  |g|= 0.000145  |ddm|= 0.00184
HOMO 82 = -0.132568358983  LUMO 83 = 0.18764793956
cycle= 9 E= -18984.7489838327  delta_E= -9.48e-09  |g|= 3.08e-05  |ddm|= 0.000452
HOMO 82 = -0.132565484643  LUMO 83 = 0.187647759391
cycle= 10 E= -18984.7489838332  delta_E= -5.35e-10  |g|= 8.23e-06  |ddm|= 8.22e-05
HOMO 82 = -0.132565779318  LUMO 83 = 0.187647615572
Extra cycle  E= -18984.7489838333  delta_E= -9.09e-11  |g|= 4.1e-06  |ddm|= 1.28e-05
converged SCF energy = -18984.7489838333

******** <class 'zccsd.zccsd.ZCCSD'> ********
CC2 = 0
CCSD nocc = 14, nmo = 124
frozen orbitals [  0   1   2   3   4   5   6   7   8   9  10  11  12  13  14  15  16  17  18  19  20  21  22  23  24  25  26  27  28  29  30  31  32  33  34  35  36  37  38  39  40  41  42  43  44  45  46  47  48
  49  50  51  52  53  54  55  56  57  58  59  60  61  62  63  64  65  66  67 192 193 194 195 196 197 198 199 200 201 202 203 204 205 206 207 208 209 210 211 212 213 214 215 216 217 218 219 220 221
 222 223 224 225 226 227 228 229 230 231 232 233 234 235 236 237 238 239 240 241 242 243 244 245 246 247 248 249 250 251 252 253 254 255 256 257 258 259 260 261 262 263 264 265 266 267 268 269 270
 271 272 273 274 275 276 277 278 279 280 281 282 283 284 285 286 287 288 289 290 291 292 293 294 295 296 297 298 299 300 301 302 303 304 305 306 307 308 309 310 311 312 313 314 315 316 317 318 319
 320 321 322 323 324 325 326 327 328 329 330 331 332 333 334 335 336 337 338 339 340 341 342 343 344 345 346 347 348 349 350 351 352 353 354 355 356 357 358 359 360 361 362 363 364 365 366 367 368
 369 370 371 372 373 374 375 376 377 378 379 380 381 382 383 384 385 386 387 388 389 390 391 392 393 394 395 396 397 398 399 400 401 402 403 404 405 406 407 408 409 410 411 412 413 414 415 416 417
 418 419 420 421 422 423 424 425 426 427 428 429 430 431 432 433 434 435 436 437 438 439 440 441 442 443 444 445 446 447 448 449 450 451 452 453 454 455 456 457 458 459 460 461 462 463 464 465 466
 467 468 469 470 471 472 473 474 475 476 477 478 479 480 481 482 483 484 485 486 487 488 489 490 491 492 493 494 495 496 497 498 499 500 501 502 503 504 505 506 507 508 509 510 511 512 513 514 515
 516 517 518 519 520 521 522 523 524 525 526 527 528 529 530 531 532 533 534 535 536 537 538 539 540 541 542 543 544 545 546 547 548 549 550 551 552 553 554 555 556 557 558 559 560 561 562 563 564
 565 566 567 568 569 570 571 572 573 574 575 576 577 578 579 580 581 582 583 584 585 586 587 588 589 590 591 592 593 594 595 596 597 598 599 600 601 602 603 604 605 606 607 608 609 610 611 612 613
 614 615 616 617 618 619 620 621 622 623]
max_cycle = 50
direct = 0
conv_tol = 1e-07
conv_tol_normt = 1e-06
diis_space = 6
diis_start_cycle = 0
diis_start_energy_diff = 1e+09
max_memory 4000 MB (current use 1028 MB)
AU
AU:dyallv3z
H
H:dyallv3z
H
H:dyallv3z
0
1
0
index 0: 0
index 1: 1
index 2: 1
All unique calculations are:
AU	AU:dyallv3z
H	H:dyallv3z
amfi Method input: Dirac Hatree Fock
with Gaunt


Total number of uncontracted spinor: 544
Total number of irreducible representation: 50

Initializing Dirac-HF for AU atom.
Did NOT find %occAMFI in amf_input
Using default occupation number for AU
Occupation number vector:
l	2j	2mj	Occ
0	1	-1	  1   1   1   1   1 0.5   0   0   0   0   0   0   0   0   0   0   0   0   0   0   0   0   0   0   0   0   0   0   0   0
0	1	1	  1   1   1   1   1 0.5   0   0   0   0   0   0   0   0   0   0   0   0   0   0   0   0   0   0   0   0   0   0   0   0
1	1	-1	1 1 1 1 0 0 0 0 0 0 0 0 0 0 0 0 0 0 0 0 0 0 0 0
1	1	1	1 1 1 1 0 0 0 0 0 0 0 0 0 0 0 0 0 0 0 0 0 0 0 0
1	3	-3	1 1 1 1 0 0 0 0 0 0 0 0 0 0 0 0 0 0 0 0 0 0 0 0
1	3	-1	1 1 1 1 0 0 0 0 0 0 0 0 0 0 0 0 0 0 0 0 0 0 0 0
1	3	1	1 1 1 1 0 0 0 0 0 0 0 0 0 0 0 0 0 0 0 0 0 0 0 0
1	3	3	1 1 1 1 0 0 0 0 0 0 0 0 0 0 0 0 0 0 0 0 0 0 0 0
2	3	-3	1 1 1 0 0 0 0 0 0 0 0 0 0 0 0
2	3	-1	1 1 1 0 0 0 0 0 0 0 0 0 0 0 0
2	3	1	1 1 1 0 0 0 0 0 0 0 0 0 0 0 0
2	3	3	1 1 1 0 0 0 0 0 0 0 0 0 0 0 0
2	5	-5	1 1 1 0 0 0 0 0 0 0 0 0 0 0 0
2	5	-3	1 1 1 0 0 0 0 0 0 0 0 0 0 0 0
2	5	-1	1 1 1 0 0 0 0 0 0 0 0 0 0 0 0
2	5	1	1 1 1 0 0 0 0 0 0 0 0 0 0 0 0
2	5	3	1 1 1 0 0 0 0 0 0 0 0 0 0 0 0
2	5	5	1 1 1 0 0 0 0 0 0 0 0 0 0 0 0
3	5	-5	1 0 0 0 0 0 0 0 0 0 0
3	5	-3	1 0 0 0 0 0 0 0 0 0 0
3	5	-1	1 0 0 0 0 0 0 0 0 0 0
3	5	1	1 0 0 0 0 0 0 0 0 0 0
3	5	3	1 0 0 0 0 0 0 0 0 0 0
3	5	5	1 0 0 0 0 0 0 0 0 0 0
3	7	-7	1 0 0 0 0 0 0 0 0 0 0
3	7	-5	1 0 0 0 0 0 0 0 0 0 0
3	7	-3	1 0 0 0 0 0 0 0 0 0 0
3	7	-1	1 0 0 0 0 0 0 0 0 0 0
3	7	1	1 0 0 0 0 0 0 0 0 0 0
3	7	3	1 0 0 0 0 0 0 0 0 0 0
3	7	5	1 0 0 0 0 0 0 0 0 0 0
3	7	7	1 0 0 0 0 0 0 0 0 0 0
4	7	-7	
4	7	-5	
4	7	-3	
4	7	-1	
4	7	1	
4	7	3	
4	7	5	
4	7	7	
4	9	-9	
4	9	-7	
4	9	-5	
4	9	-3	
4	9	-1	
4	9	1	
4	9	3	
4	9	5	
4	9	7	
4	9	9	
Highest occupied irrep: 32
Total number of electrons: 79

Maximum memory cost (2e part) in SCF and amfi calculation: 1.01569 GB.
1e-integral finished in 0 seconds.
2e-integral finished in 35.83 seconds.
2e-integral-Gaunt finished in 29.38 seconds.


Start Dirac Hartree-Fock iterations...
with SCF convergence = 1e-08

Iter #1 maximum density difference: 49.6025
Iter #2 maximum density difference: 28.8998
Iter #3 maximum density difference: 28.2743
Iter #4 maximum density difference: 6.41075
Iter #5 maximum density difference: 6.70339
Iter #6 maximum density difference: 0.56907
Iter #7 maximum density difference: 0.418855
Iter #8 maximum density difference: 0.0785074
Iter #9 maximum density difference: 0.00687811
Iter #10 maximum density difference: 0.00178864
Iter #11 maximum density difference: 0.00101014
Iter #12 maximum density difference: 0.000187763
Iter #13 maximum density difference: 5.07001e-05
Iter #14 maximum density difference: 2.7759e-06
Iter #15 maximum density difference: 1.1978e-06
Iter #16 maximum density difference: 4.03354e-07
Iter #17 maximum density difference: 1.93886e-08
Iter #18 maximum density difference: 1.0699e-09

SCF converges after 18 iterations.

	Orbital		Energy(in hartree)
	*******		******************
	1		-2976.38769025737
	2		-531.156828313647
	3		-127.920803293356
	4		-29.1183632069159
	5		-4.69359997496281
	6		-0.149922718006351
	7		0.136226386640389
	8		0.681770717088499
	9		2.61191428965697
	10		8.50288550011229
	11		24.490197316314
	12		65.2493166593201
	13		161.496658670172
	14		376.783329490545
	15		835.026946525074
	16		1754.22125036894
	17		3483.1542302975
	18		6521.959888653
	19		11533.5320143746
	20		19379.2227597968
	21		31232.4848736464
	22		48781.8310309185
	23		74612.448442374
	24		112731.430416159
	25		169779.871641847
	26		256592.46705006
	27		393569.772152205
	28		616148.332917486
	29		1014876.24961276
	30		1753769.04260694
	1		-507.095128559628
	2		-117.446290953416
	3		-24.6642569664846
	4		-3.19131879297641
	5		0.0421470590587812
	6		0.165317820952832
	7		0.609570187976176
	8		2.31935512013915
	9		7.97278558030431
	10		24.6693068326347
	11		70.7050193810523
	12		188.243306441589
	13		472.127204287396
	14		1125.04201544215
	15		2550.94507514039
	16		5502.06138103292
	17		11290.8960864644
	18		22138.6651941597
	19		41957.3666222071
	20		78088.3596824926
	21		145430.979525781
	22		275072.566463681
	23		545944.873338373
	24		1133991.07333692
	1		-440.228044504327
	2		-102.476367098959
	3		-21.030584415131
	4		-2.5678007550817
	5		0.0461627291404841
	6		0.183007861212937
	7		0.678196362185292
	8		2.59793342531644
	9		8.85773139063584
	10		27.2479106371586
	11		77.594346379964
	12		205.395251139687
	13		513.055727541932
	14		1220.18426801362
	15		2769.93856650964
	16		5999.9533723111
	17		12385.6082505942
	18		24438.2472076698
	19		46597.5183880089
	20		87294.2821757069
	21		163603.714798763
	22		312548.443244011
	23		622296.223077453
	24		1334308.77883959
	1		-85.7884342795462
	2		-13.8556491128819
	3		-0.507399593363803
	4		0.443251088303637
	5		1.76237840861325
	6		5.67944775542135
	7		16.913401056583
	8		47.008521693304
	9		121.440494873048
	10		296.396240070046
	11		699.073831280375
	12		1628.52779575675
	13		3814.42793740759
	14		9151.3726352305
	15		23606.1941553963
	1		-82.6286389476135
	2		-13.1744514907792
	3		-0.443890310884974
	4		0.455251134619984
	5		1.81445457279213
	6		5.83027541057727
	7		17.3246415338444
	8		48.051784933253
	9		123.956032487273
	10		302.51819739977
	11		714.798890085057
	12		1671.79410791552
	13		3942.29957568567
	14		9561.18371992331
	15		25177.2373271569
	1		-3.88886674761645
	2		0.677235107883244
	3		1.78224770785716
	4		4.7557600347536
	5		12.9533216794106
	6		32.1737111800879
	7		75.1630062682628
	8		172.016982290105
	9		399.356947685243
	10		977.792486905129
	11		2719.62954225893
	1		-3.74688569231986
	2		0.673987832266913
	3		1.78500716380443
	4		4.79649353141516
	5		13.0453939913343
	6		32.3637372128371
	7		75.6395501068872
	8		173.298457904575
	9		403.041044152728
	10		990.228783522084
	11		2780.76458832148
Final DHF energy is -19015.2061462201 hartree.
DHF iterations finished in 54.76 seconds.


ATTENTION! Since gaunt terms are included in SCF, they are automatically calculated in amfi integrals.


Total number of uncontracted spinor: 40
Total number of irreducible representation: 18

Initializing Dirac-HF for H atom.
Did NOT find %occAMFI in amf_input
Using default occupation number for H
Occupation number vector:
l	2j	2mj	Occ
0	1	-1	0.5   0   0   0   0   0   0   0   0
0	1	1	0.5   0   0   0   0   0   0   0   0
1	1	-1	
1	1	1	
1	3	-3	
1	3	-1	
1	3	1	
1	3	3	
2	3	-3	
2	3	-1	
2	3	1	
2	3	3	
2	5	-5	
2	5	-3	
2	5	-1	
2	5	1	
2	5	3	
2	5	5	
Highest occupied irrep: 2
Total number of electrons: 1

Maximum memory cost (2e part) in SCF and amfi calculation: 0.00111056864261627 GB.
1e-integral finished in 0 seconds.
2e-integral finished in 0.02 seconds.
2e-integral-Gaunt finished in 0.09 seconds.


Start Dirac Hartree-Fock iterations...
with SCF convergence = 1e-08

Iter #1 maximum density difference: 0.0502673048117581

SCF converges after 1 iterations.

	Orbital		Energy(in hartree)
	*******		******************
	1		-0.500004787483762
	2		-0.0850672113072289
	3		0.411413566782255
	4		1.91963776885519
	5		6.49124019725774
	6		21.2196170548258
	7		74.307435014668
	8		305.056417603089
	9		1720.1502456651
Final DHF energy is -0.343748010620561 hartree.
DHF iterations finished in 0.01 seconds.


ATTENTION! Since gaunt terms are included in SCF, they are automatically calculated in amfi integrals.

AU
AU:dyallv3z
H
H:dyallv3z
H
H:dyallv3z
0
1
0
index 0: 0
index 1: 1
index 2: 1
All unique calculations are:
AU	AU:dyallv3z
H	H:dyallv3z
amfi Method input: Dirac Hatree Fock
with Gaunt


Total number of uncontracted spinor: 544
Total number of irreducible representation: 50

Initializing Dirac-HF for AU atom.
Did NOT find %occAMFI in amf_input
Using default occupation number for AU
Occupation number vector:
l	2j	2mj	Occ
0	1	-1	  1   1   1   1   1 0.5   0   0   0   0   0   0   0   0   0   0   0   0   0   0   0   0   0   0   0   0   0   0   0   0
0	1	1	  1   1   1   1   1 0.5   0   0   0   0   0   0   0   0   0   0   0   0   0   0   0   0   0   0   0   0   0   0   0   0
1	1	-1	1 1 1 1 0 0 0 0 0 0 0 0 0 0 0 0 0 0 0 0 0 0 0 0
1	1	1	1 1 1 1 0 0 0 0 0 0 0 0 0 0 0 0 0 0 0 0 0 0 0 0
1	3	-3	1 1 1 1 0 0 0 0 0 0 0 0 0 0 0 0 0 0 0 0 0 0 0 0
1	3	-1	1 1 1 1 0 0 0 0 0 0 0 0 0 0 0 0 0 0 0 0 0 0 0 0
1	3	1	1 1 1 1 0 0 0 0 0 0 0 0 0 0 0 0 0 0 0 0 0 0 0 0
1	3	3	1 1 1 1 0 0 0 0 0 0 0 0 0 0 0 0 0 0 0 0 0 0 0 0
2	3	-3	1 1 1 0 0 0 0 0 0 0 0 0 0 0 0
2	3	-1	1 1 1 0 0 0 0 0 0 0 0 0 0 0 0
2	3	1	1 1 1 0 0 0 0 0 0 0 0 0 0 0 0
2	3	3	1 1 1 0 0 0 0 0 0 0 0 0 0 0 0
2	5	-5	1 1 1 0 0 0 0 0 0 0 0 0 0 0 0
2	5	-3	1 1 1 0 0 0 0 0 0 0 0 0 0 0 0
2	5	-1	1 1 1 0 0 0 0 0 0 0 0 0 0 0 0
2	5	1	1 1 1 0 0 0 0 0 0 0 0 0 0 0 0
2	5	3	1 1 1 0 0 0 0 0 0 0 0 0 0 0 0
2	5	5	1 1 1 0 0 0 0 0 0 0 0 0 0 0 0
3	5	-5	1 0 0 0 0 0 0 0 0 0 0
3	5	-3	1 0 0 0 0 0 0 0 0 0 0
3	5	-1	1 0 0 0 0 0 0 0 0 0 0
3	5	1	1 0 0 0 0 0 0 0 0 0 0
3	5	3	1 0 0 0 0 0 0 0 0 0 0
3	5	5	1 0 0 0 0 0 0 0 0 0 0
3	7	-7	1 0 0 0 0 0 0 0 0 0 0
3	7	-5	1 0 0 0 0 0 0 0 0 0 0
3	7	-3	1 0 0 0 0 0 0 0 0 0 0
3	7	-1	1 0 0 0 0 0 0 0 0 0 0
3	7	1	1 0 0 0 0 0 0 0 0 0 0
3	7	3	1 0 0 0 0 0 0 0 0 0 0
3	7	5	1 0 0 0 0 0 0 0 0 0 0
3	7	7	1 0 0 0 0 0 0 0 0 0 0
4	7	-7	
4	7	-5	
4	7	-3	
4	7	-1	
4	7	1	
4	7	3	
4	7	5	
4	7	7	
4	9	-9	
4	9	-7	
4	9	-5	
4	9	-3	
4	9	-1	
4	9	1	
4	9	3	
4	9	5	
4	9	7	
4	9	9	
Highest occupied irrep: 32
Total number of electrons: 79

Maximum memory cost (2e part) in SCF and amfi calculation: 1.01569 GB.
1e-integral finished in 0 seconds.
2e-integral finished in 35.89 seconds.
2e-integral-Gaunt finished in 29.41 seconds.


Start Dirac Hartree-Fock iterations...
with SCF convergence = 1e-08

Iter #1 maximum density difference: 49.6025
Iter #2 maximum density difference: 28.8998
Iter #3 maximum density difference: 28.2743
Iter #4 maximum density difference: 6.41075
Iter #5 maximum density difference: 6.70339
Iter #6 maximum density difference: 0.56907
Iter #7 maximum density difference: 0.418855
Iter #8 maximum density difference: 0.0785074
Iter #9 maximum density difference: 0.00687811
Iter #10 maximum density difference: 0.00178864
Iter #11 maximum density difference: 0.00101014
Iter #12 maximum density difference: 0.000187763
Iter #13 maximum density difference: 5.07001e-05
Iter #14 maximum density difference: 2.7759e-06
Iter #15 maximum density difference: 1.1978e-06
Iter #16 maximum density difference: 4.03354e-07
Iter #17 maximum density difference: 1.93886e-08
Iter #18 maximum density difference: 1.0699e-09

SCF converges after 18 iterations.

	Orbital		Energy(in hartree)
	*******		******************
	1		-2976.38769025737
	2		-531.156828313647
	3		-127.920803293356
	4		-29.1183632069159
	5		-4.69359997496281
	6		-0.149922718006351
	7		0.136226386640389
	8		0.681770717088499
	9		2.61191428965697
	10		8.50288550011229
	11		24.490197316314
	12		65.2493166593201
	13		161.496658670172
	14		376.783329490545
	15		835.026946525074
	16		1754.22125036894
	17		3483.1542302975
	18		6521.959888653
	19		11533.5320143746
	20		19379.2227597968
	21		31232.4848736464
	22		48781.8310309185
	23		74612.448442374
	24		112731.430416159
	25		169779.871641847
	26		256592.46705006
	27		393569.772152205
	28		616148.332917486
	29		1014876.24961276
	30		1753769.04260694
	1		-507.095128559628
	2		-117.446290953416
	3		-24.6642569664846
	4		-3.19131879297641
	5		0.0421470590587812
	6		0.165317820952832
	7		0.609570187976176
	8		2.31935512013915
	9		7.97278558030431
	10		24.6693068326347
	11		70.7050193810523
	12		188.243306441589
	13		472.127204287396
	14		1125.04201544215
	15		2550.94507514039
	16		5502.06138103292
	17		11290.8960864644
	18		22138.6651941597
	19		41957.3666222071
	20		78088.3596824926
	21		145430.979525781
	22		275072.566463681
	23		545944.873338373
	24		1133991.07333692
	1		-440.228044504327
	2		-102.476367098959
	3		-21.030584415131
	4		-2.5678007550817
	5		0.0461627291404841
	6		0.183007861212937
	7		0.678196362185292
	8		2.59793342531644
	9		8.85773139063584
	10		27.2479106371586
	11		77.594346379964
	12		205.395251139687
	13		513.055727541932
	14		1220.18426801362
	15		2769.93856650964
	16		5999.9533723111
	17		12385.6082505942
	18		24438.2472076698
	19		46597.5183880089
	20		87294.2821757069
	21		163603.714798763
	22		312548.443244011
	23		622296.223077453
	24		1334308.77883959
	1		-85.7884342795462
	2		-13.8556491128819
	3		-0.507399593363803
	4		0.443251088303637
	5		1.76237840861325
	6		5.67944775542135
	7		16.913401056583
	8		47.008521693304
	9		121.440494873048
	10		296.396240070046
	11		699.073831280375
	12		1628.52779575675
	13		3814.42793740759
	14		9151.3726352305
	15		23606.1941553963
	1		-82.6286389476135
	2		-13.1744514907792
	3		-0.443890310884974
	4		0.455251134619984
	5		1.81445457279213
	6		5.83027541057727
	7		17.3246415338444
	8		48.051784933253
	9		123.956032487273
	10		302.51819739977
	11		714.798890085057
	12		1671.79410791552
	13		3942.29957568567
	14		9561.18371992331
	15		25177.2373271569
	1		-3.88886674761645
	2		0.677235107883244
	3		1.78224770785716
	4		4.7557600347536
	5		12.9533216794106
	6		32.1737111800879
	7		75.1630062682628
	8		172.016982290105
	9		399.356947685243
	10		977.792486905129
	11		2719.62954225893
	1		-3.74688569231986
	2		0.673987832266913
	3		1.78500716380443
	4		4.79649353141516
	5		13.0453939913343
	6		32.3637372128371
	7		75.6395501068872
	8		173.298457904575
	9		403.041044152728
	10		990.228783522084
	11		2780.76458832148
Final DHF energy is -19015.2061462201 hartree.
DHF iterations finished in 50.94 seconds.


ATTENTION! Since gaunt terms are included in SCF, they are automatically calculated in amfi integrals.


Total number of uncontracted spinor: 40
Total number of irreducible representation: 18

Initializing Dirac-HF for H atom.
Did NOT find %occAMFI in amf_input
Using default occupation number for H
Occupation number vector:
l	2j	2mj	Occ
0	1	-1	0.5   0   0   0   0   0   0   0   0
0	1	1	0.5   0   0   0   0   0   0   0   0
1	1	-1	
1	1	1	
1	3	-3	
1	3	-1	
1	3	1	
1	3	3	
2	3	-3	
2	3	-1	
2	3	1	
2	3	3	
2	5	-5	
2	5	-3	
2	5	-1	
2	5	1	
2	5	3	
2	5	5	
Highest occupied irrep: 2
Total number of electrons: 1

Maximum memory cost (2e part) in SCF and amfi calculation: 0.00111056864261627 GB.
1e-integral finished in 0 seconds.
2e-integral finished in 0.04 seconds.
2e-integral-Gaunt finished in 0.08 seconds.


Start Dirac Hartree-Fock iterations...
with SCF convergence = 1e-08

Iter #1 maximum density difference: 0.0502673048117581

SCF converges after 1 iterations.

	Orbital		Energy(in hartree)
	*******		******************
	1		-0.500004787483762
	2		-0.0850672113072289
	3		0.411413566782255
	4		1.91963776885519
	5		6.49124019725774
	6		21.2196170548258
	7		74.307435014668
	8		305.056417603089
	9		1720.1502456651
Final DHF energy is -0.343748010620561 hartree.
DHF iterations finished in 0.02 seconds.


ATTENTION! Since gaunt terms are included in SCF, they are automatically calculated in amfi integrals.

(624, 124)
/home/xuwa0145/tools/amfso/amf_pyscf.exe
/home/xuwa0145/tools/amfso/amf_pyscf.exe
(624, 624)
624 124
14 110
(624, 124)
(624, 14) (624, 110)
(1736, 15376)
0 124 14 124
Init t2, MP2 energy = -0.338283134837997
Init E_corr(CCSD) = -0.338283134843989
cycle = 1  E_corr(CCSD) = -0.313946325434462  dE = 0.0243368094  norm(t1,t2) = 0.11116
cycle = 2  E_corr(CCSD) = -0.327984847741226  dE = -0.0140385223  norm(t1,t2) = 0.0354462
cycle = 3  E_corr(CCSD) = -0.326899535369396  dE = 0.00108531237  norm(t1,t2) = 0.0176201
cycle = 4  E_corr(CCSD) = -0.328308251940545  dE = -0.00140871657  norm(t1,t2) = 0.00754305
cycle = 5  E_corr(CCSD) = -0.328419086941209  dE = -0.000110835001  norm(t1,t2) = 0.00131686
cycle = 6  E_corr(CCSD) = -0.328352330794378  dE = 6.67561468e-05  norm(t1,t2) = 0.00059457
cycle = 7  E_corr(CCSD) = -0.328341467353253  dE = 1.08634411e-05  norm(t1,t2) = 0.000138985
cycle = 8  E_corr(CCSD) = -0.328346496346399  dE = -5.02899315e-06  norm(t1,t2) = 5.07638e-05
cycle = 9  E_corr(CCSD) = -0.328346714281955  dE = -2.17935556e-07  norm(t1,t2) = 2.21912e-05
cycle = 10  E_corr(CCSD) = -0.32834619741424  dE = 5.16867715e-07  norm(t1,t2) = 5.59194e-06
cycle = 11  E_corr(CCSD) = -0.328346373229916  dE = -1.75815676e-07  norm(t1,t2) = 2.02911e-06
cycle = 12  E_corr(CCSD) = -0.32834629109581  dE = 8.21341064e-08  norm(t1,t2) = 7.01858e-07
ZCCSD converged
E(ZCCSD) = -18985.07733012449  E_corr = -0.3283462910958096

******** <class 'pyscf.cc.eom_gccsd.EOMIP'> ********
max_space = 20
max_cycle = 50
conv_tol = 1e-07
partition = None
max_memory 4000 MB (current use 1994 MB)
AU
AU:dyallv3z
H
H:dyallv3z
H
H:dyallv3z
0
1
0
index 0: 0
index 1: 1
index 2: 1
All unique calculations are:
AU	AU:dyallv3z
H	H:dyallv3z
amfi Method input: Dirac Hatree Fock
with Gaunt


Total number of uncontracted spinor: 544
Total number of irreducible representation: 50

Initializing Dirac-HF for AU atom.
Did NOT find %occAMFI in amf_input
Using default occupation number for AU
Occupation number vector:
l	2j	2mj	Occ
0	1	-1	  1   1   1   1   1 0.5   0   0   0   0   0   0   0   0   0   0   0   0   0   0   0   0   0   0   0   0   0   0   0   0
0	1	1	  1   1   1   1   1 0.5   0   0   0   0   0   0   0   0   0   0   0   0   0   0   0   0   0   0   0   0   0   0   0   0
1	1	-1	1 1 1 1 0 0 0 0 0 0 0 0 0 0 0 0 0 0 0 0 0 0 0 0
1	1	1	1 1 1 1 0 0 0 0 0 0 0 0 0 0 0 0 0 0 0 0 0 0 0 0
1	3	-3	1 1 1 1 0 0 0 0 0 0 0 0 0 0 0 0 0 0 0 0 0 0 0 0
1	3	-1	1 1 1 1 0 0 0 0 0 0 0 0 0 0 0 0 0 0 0 0 0 0 0 0
1	3	1	1 1 1 1 0 0 0 0 0 0 0 0 0 0 0 0 0 0 0 0 0 0 0 0
1	3	3	1 1 1 1 0 0 0 0 0 0 0 0 0 0 0 0 0 0 0 0 0 0 0 0
2	3	-3	1 1 1 0 0 0 0 0 0 0 0 0 0 0 0
2	3	-1	1 1 1 0 0 0 0 0 0 0 0 0 0 0 0
2	3	1	1 1 1 0 0 0 0 0 0 0 0 0 0 0 0
2	3	3	1 1 1 0 0 0 0 0 0 0 0 0 0 0 0
2	5	-5	1 1 1 0 0 0 0 0 0 0 0 0 0 0 0
2	5	-3	1 1 1 0 0 0 0 0 0 0 0 0 0 0 0
2	5	-1	1 1 1 0 0 0 0 0 0 0 0 0 0 0 0
2	5	1	1 1 1 0 0 0 0 0 0 0 0 0 0 0 0
2	5	3	1 1 1 0 0 0 0 0 0 0 0 0 0 0 0
2	5	5	1 1 1 0 0 0 0 0 0 0 0 0 0 0 0
3	5	-5	1 0 0 0 0 0 0 0 0 0 0
3	5	-3	1 0 0 0 0 0 0 0 0 0 0
3	5	-1	1 0 0 0 0 0 0 0 0 0 0
3	5	1	1 0 0 0 0 0 0 0 0 0 0
3	5	3	1 0 0 0 0 0 0 0 0 0 0
3	5	5	1 0 0 0 0 0 0 0 0 0 0
3	7	-7	1 0 0 0 0 0 0 0 0 0 0
3	7	-5	1 0 0 0 0 0 0 0 0 0 0
3	7	-3	1 0 0 0 0 0 0 0 0 0 0
3	7	-1	1 0 0 0 0 0 0 0 0 0 0
3	7	1	1 0 0 0 0 0 0 0 0 0 0
3	7	3	1 0 0 0 0 0 0 0 0 0 0
3	7	5	1 0 0 0 0 0 0 0 0 0 0
3	7	7	1 0 0 0 0 0 0 0 0 0 0
4	7	-7	
4	7	-5	
4	7	-3	
4	7	-1	
4	7	1	
4	7	3	
4	7	5	
4	7	7	
4	9	-9	
4	9	-7	
4	9	-5	
4	9	-3	
4	9	-1	
4	9	1	
4	9	3	
4	9	5	
4	9	7	
4	9	9	
Highest occupied irrep: 32
Total number of electrons: 79

Maximum memory cost (2e part) in SCF and amfi calculation: 1.01569 GB.
1e-integral finished in 0 seconds.
2e-integral finished in 35.84 seconds.
2e-integral-Gaunt finished in 29.4 seconds.


Start Dirac Hartree-Fock iterations...
with SCF convergence = 1e-08

Iter #1 maximum density difference: 49.6025
Iter #2 maximum density difference: 28.8998
Iter #3 maximum density difference: 28.2743
Iter #4 maximum density difference: 6.41075
Iter #5 maximum density difference: 6.70339
Iter #6 maximum density difference: 0.56907
Iter #7 maximum density difference: 0.418855
Iter #8 maximum density difference: 0.0785074
Iter #9 maximum density difference: 0.00687811
Iter #10 maximum density difference: 0.00178864
Iter #11 maximum density difference: 0.00101014
Iter #12 maximum density difference: 0.000187763
Iter #13 maximum density difference: 5.07001e-05
Iter #14 maximum density difference: 2.7759e-06
Iter #15 maximum density difference: 1.1978e-06
Iter #16 maximum density difference: 4.03354e-07
Iter #17 maximum density difference: 1.93886e-08
Iter #18 maximum density difference: 1.0699e-09

SCF converges after 18 iterations.

	Orbital		Energy(in hartree)
	*******		******************
	1		-2976.38769025737
	2		-531.156828313647
	3		-127.920803293356
	4		-29.1183632069159
	5		-4.69359997496281
	6		-0.149922718006351
	7		0.136226386640389
	8		0.681770717088499
	9		2.61191428965697
	10		8.50288550011229
	11		24.490197316314
	12		65.2493166593201
	13		161.496658670172
	14		376.783329490545
	15		835.026946525074
	16		1754.22125036894
	17		3483.1542302975
	18		6521.959888653
	19		11533.5320143746
	20		19379.2227597968
	21		31232.4848736464
	22		48781.8310309185
	23		74612.448442374
	24		112731.430416159
	25		169779.871641847
	26		256592.46705006
	27		393569.772152205
	28		616148.332917486
	29		1014876.24961276
	30		1753769.04260694
	1		-507.095128559628
	2		-117.446290953416
	3		-24.6642569664846
	4		-3.19131879297641
	5		0.0421470590587812
	6		0.165317820952832
	7		0.609570187976176
	8		2.31935512013915
	9		7.97278558030431
	10		24.6693068326347
	11		70.7050193810523
	12		188.243306441589
	13		472.127204287396
	14		1125.04201544215
	15		2550.94507514039
	16		5502.06138103292
	17		11290.8960864644
	18		22138.6651941597
	19		41957.3666222071
	20		78088.3596824926
	21		145430.979525781
	22		275072.566463681
	23		545944.873338373
	24		1133991.07333692
	1		-440.228044504327
	2		-102.476367098959
	3		-21.030584415131
	4		-2.5678007550817
	5		0.0461627291404841
	6		0.183007861212937
	7		0.678196362185292
	8		2.59793342531644
	9		8.85773139063584
	10		27.2479106371586
	11		77.594346379964
	12		205.395251139687
	13		513.055727541932
	14		1220.18426801362
	15		2769.93856650964
	16		5999.9533723111
	17		12385.6082505942
	18		24438.2472076698
	19		46597.5183880089
	20		87294.2821757069
	21		163603.714798763
	22		312548.443244011
	23		622296.223077453
	24		1334308.77883959
	1		-85.7884342795462
	2		-13.8556491128819
	3		-0.507399593363803
	4		0.443251088303637
	5		1.76237840861325
	6		5.67944775542135
	7		16.913401056583
	8		47.008521693304
	9		121.440494873048
	10		296.396240070046
	11		699.073831280375
	12		1628.52779575675
	13		3814.42793740759
	14		9151.3726352305
	15		23606.1941553963
	1		-82.6286389476135
	2		-13.1744514907792
	3		-0.443890310884974
	4		0.455251134619984
	5		1.81445457279213
	6		5.83027541057727
	7		17.3246415338444
	8		48.051784933253
	9		123.956032487273
	10		302.51819739977
	11		714.798890085057
	12		1671.79410791552
	13		3942.29957568567
	14		9561.18371992331
	15		25177.2373271569
	1		-3.88886674761645
	2		0.677235107883244
	3		1.78224770785716
	4		4.7557600347536
	5		12.9533216794106
	6		32.1737111800879
	7		75.1630062682628
	8		172.016982290105
	9		399.356947685243
	10		977.792486905129
	11		2719.62954225893
	1		-3.74688569231986
	2		0.673987832266913
	3		1.78500716380443
	4		4.79649353141516
	5		13.0453939913343
	6		32.3637372128371
	7		75.6395501068872
	8		173.298457904575
	9		403.041044152728
	10		990.228783522084
	11		2780.76458832148
Final DHF energy is -19015.2061462201 hartree.
DHF iterations finished in 52.71 seconds.


ATTENTION! Since gaunt terms are included in SCF, they are automatically calculated in amfi integrals.


Total number of uncontracted spinor: 40
Total number of irreducible representation: 18

Initializing Dirac-HF for H atom.
Did NOT find %occAMFI in amf_input
Using default occupation number for H
Occupation number vector:
l	2j	2mj	Occ
0	1	-1	0.5   0   0   0   0   0   0   0   0
0	1	1	0.5   0   0   0   0   0   0   0   0
1	1	-1	
1	1	1	
1	3	-3	
1	3	-1	
1	3	1	
1	3	3	
2	3	-3	
2	3	-1	
2	3	1	
2	3	3	
2	5	-5	
2	5	-3	
2	5	-1	
2	5	1	
2	5	3	
2	5	5	
Highest occupied irrep: 2
Total number of electrons: 1

Maximum memory cost (2e part) in SCF and amfi calculation: 0.00111056864261627 GB.
1e-integral finished in 0 seconds.
2e-integral finished in 0.03 seconds.
2e-integral-Gaunt finished in 0.08 seconds.


Start Dirac Hartree-Fock iterations...
with SCF convergence = 1e-08

Iter #1 maximum density difference: 0.0502673048117581

SCF converges after 1 iterations.

	Orbital		Energy(in hartree)
	*******		******************
	1		-0.500004787483762
	2		-0.0850672113072289
	3		0.411413566782255
	4		1.91963776885519
	5		6.49124019725774
	6		21.2196170548258
	7		74.307435014668
	8		305.056417603089
	9		1720.1502456651
Final DHF energy is -0.343748010620561 hartree.
DHF iterations finished in 0.01 seconds.


ATTENTION! Since gaunt terms are included in SCF, they are automatically calculated in amfi integrals.

AU
AU:dyallv3z
H
H:dyallv3z
H
H:dyallv3z
0
1
0
index 0: 0
index 1: 1
index 2: 1
All unique calculations are:
AU	AU:dyallv3z
H	H:dyallv3z
amfi Method input: Dirac Hatree Fock
with Gaunt


Total number of uncontracted spinor: 544
Total number of irreducible representation: 50

Initializing Dirac-HF for AU atom.
Did NOT find %occAMFI in amf_input
Using default occupation number for AU
Occupation number vector:
l	2j	2mj	Occ
0	1	-1	  1   1   1   1   1 0.5   0   0   0   0   0   0   0   0   0   0   0   0   0   0   0   0   0   0   0   0   0   0   0   0
0	1	1	  1   1   1   1   1 0.5   0   0   0   0   0   0   0   0   0   0   0   0   0   0   0   0   0   0   0   0   0   0   0   0
1	1	-1	1 1 1 1 0 0 0 0 0 0 0 0 0 0 0 0 0 0 0 0 0 0 0 0
1	1	1	1 1 1 1 0 0 0 0 0 0 0 0 0 0 0 0 0 0 0 0 0 0 0 0
1	3	-3	1 1 1 1 0 0 0 0 0 0 0 0 0 0 0 0 0 0 0 0 0 0 0 0
1	3	-1	1 1 1 1 0 0 0 0 0 0 0 0 0 0 0 0 0 0 0 0 0 0 0 0
1	3	1	1 1 1 1 0 0 0 0 0 0 0 0 0 0 0 0 0 0 0 0 0 0 0 0
1	3	3	1 1 1 1 0 0 0 0 0 0 0 0 0 0 0 0 0 0 0 0 0 0 0 0
2	3	-3	1 1 1 0 0 0 0 0 0 0 0 0 0 0 0
2	3	-1	1 1 1 0 0 0 0 0 0 0 0 0 0 0 0
2	3	1	1 1 1 0 0 0 0 0 0 0 0 0 0 0 0
2	3	3	1 1 1 0 0 0 0 0 0 0 0 0 0 0 0
2	5	-5	1 1 1 0 0 0 0 0 0 0 0 0 0 0 0
2	5	-3	1 1 1 0 0 0 0 0 0 0 0 0 0 0 0
2	5	-1	1 1 1 0 0 0 0 0 0 0 0 0 0 0 0
2	5	1	1 1 1 0 0 0 0 0 0 0 0 0 0 0 0
2	5	3	1 1 1 0 0 0 0 0 0 0 0 0 0 0 0
2	5	5	1 1 1 0 0 0 0 0 0 0 0 0 0 0 0
3	5	-5	1 0 0 0 0 0 0 0 0 0 0
3	5	-3	1 0 0 0 0 0 0 0 0 0 0
3	5	-1	1 0 0 0 0 0 0 0 0 0 0
3	5	1	1 0 0 0 0 0 0 0 0 0 0
3	5	3	1 0 0 0 0 0 0 0 0 0 0
3	5	5	1 0 0 0 0 0 0 0 0 0 0
3	7	-7	1 0 0 0 0 0 0 0 0 0 0
3	7	-5	1 0 0 0 0 0 0 0 0 0 0
3	7	-3	1 0 0 0 0 0 0 0 0 0 0
3	7	-1	1 0 0 0 0 0 0 0 0 0 0
3	7	1	1 0 0 0 0 0 0 0 0 0 0
3	7	3	1 0 0 0 0 0 0 0 0 0 0
3	7	5	1 0 0 0 0 0 0 0 0 0 0
3	7	7	1 0 0 0 0 0 0 0 0 0 0
4	7	-7	
4	7	-5	
4	7	-3	
4	7	-1	
4	7	1	
4	7	3	
4	7	5	
4	7	7	
4	9	-9	
4	9	-7	
4	9	-5	
4	9	-3	
4	9	-1	
4	9	1	
4	9	3	
4	9	5	
4	9	7	
4	9	9	
Highest occupied irrep: 32
Total number of electrons: 79

Maximum memory cost (2e part) in SCF and amfi calculation: 1.01569 GB.
1e-integral finished in 0 seconds.
2e-integral finished in 35.89 seconds.
2e-integral-Gaunt finished in 29.45 seconds.


Start Dirac Hartree-Fock iterations...
with SCF convergence = 1e-08

Iter #1 maximum density difference: 49.6025
Iter #2 maximum density difference: 28.8998
Iter #3 maximum density difference: 28.2743
Iter #4 maximum density difference: 6.41075
Iter #5 maximum density difference: 6.70339
Iter #6 maximum density difference: 0.56907
Iter #7 maximum density difference: 0.418855
Iter #8 maximum density difference: 0.0785074
Iter #9 maximum density difference: 0.00687811
Iter #10 maximum density difference: 0.00178864
Iter #11 maximum density difference: 0.00101014
Iter #12 maximum density difference: 0.000187763
Iter #13 maximum density difference: 5.07001e-05
Iter #14 maximum density difference: 2.7759e-06
Iter #15 maximum density difference: 1.1978e-06
Iter #16 maximum density difference: 4.03354e-07
Iter #17 maximum density difference: 1.93886e-08
Iter #18 maximum density difference: 1.0699e-09

SCF converges after 18 iterations.

	Orbital		Energy(in hartree)
	*******		******************
	1		-2976.38769025737
	2		-531.156828313647
	3		-127.920803293356
	4		-29.1183632069159
	5		-4.69359997496281
	6		-0.149922718006351
	7		0.136226386640389
	8		0.681770717088499
	9		2.61191428965697
	10		8.50288550011229
	11		24.490197316314
	12		65.2493166593201
	13		161.496658670172
	14		376.783329490545
	15		835.026946525074
	16		1754.22125036894
	17		3483.1542302975
	18		6521.959888653
	19		11533.5320143746
	20		19379.2227597968
	21		31232.4848736464
	22		48781.8310309185
	23		74612.448442374
	24		112731.430416159
	25		169779.871641847
	26		256592.46705006
	27		393569.772152205
	28		616148.332917486
	29		1014876.24961276
	30		1753769.04260694
	1		-507.095128559628
	2		-117.446290953416
	3		-24.6642569664846
	4		-3.19131879297641
	5		0.0421470590587812
	6		0.165317820952832
	7		0.609570187976176
	8		2.31935512013915
	9		7.97278558030431
	10		24.6693068326347
	11		70.7050193810523
	12		188.243306441589
	13		472.127204287396
	14		1125.04201544215
	15		2550.94507514039
	16		5502.06138103292
	17		11290.8960864644
	18		22138.6651941597
	19		41957.3666222071
	20		78088.3596824926
	21		145430.979525781
	22		275072.566463681
	23		545944.873338373
	24		1133991.07333692
	1		-440.228044504327
	2		-102.476367098959
	3		-21.030584415131
	4		-2.5678007550817
	5		0.0461627291404841
	6		0.183007861212937
	7		0.678196362185292
	8		2.59793342531644
	9		8.85773139063584
	10		27.2479106371586
	11		77.594346379964
	12		205.395251139687
	13		513.055727541932
	14		1220.18426801362
	15		2769.93856650964
	16		5999.9533723111
	17		12385.6082505942
	18		24438.2472076698
	19		46597.5183880089
	20		87294.2821757069
	21		163603.714798763
	22		312548.443244011
	23		622296.223077453
	24		1334308.77883959
	1		-85.7884342795462
	2		-13.8556491128819
	3		-0.507399593363803
	4		0.443251088303637
	5		1.76237840861325
	6		5.67944775542135
	7		16.913401056583
	8		47.008521693304
	9		121.440494873048
	10		296.396240070046
	11		699.073831280375
	12		1628.52779575675
	13		3814.42793740759
	14		9151.3726352305
	15		23606.1941553963
	1		-82.6286389476135
	2		-13.1744514907792
	3		-0.443890310884974
	4		0.455251134619984
	5		1.81445457279213
	6		5.83027541057727
	7		17.3246415338444
	8		48.051784933253
	9		123.956032487273
	10		302.51819739977
	11		714.798890085057
	12		1671.79410791552
	13		3942.29957568567
	14		9561.18371992331
	15		25177.2373271569
	1		-3.88886674761645
	2		0.677235107883244
	3		1.78224770785716
	4		4.7557600347536
	5		12.9533216794106
	6		32.1737111800879
	7		75.1630062682628
	8		172.016982290105
	9		399.356947685243
	10		977.792486905129
	11		2719.62954225893
	1		-3.74688569231986
	2		0.673987832266913
	3		1.78500716380443
	4		4.79649353141516
	5		13.0453939913343
	6		32.3637372128371
	7		75.6395501068872
	8		173.298457904575
	9		403.041044152728
	10		990.228783522084
	11		2780.76458832148
Final DHF energy is -19015.2061462201 hartree.
DHF iterations finished in 54.1 seconds.


ATTENTION! Since gaunt terms are included in SCF, they are automatically calculated in amfi integrals.


Total number of uncontracted spinor: 40
Total number of irreducible representation: 18

Initializing Dirac-HF for H atom.
Did NOT find %occAMFI in amf_input
Using default occupation number for H
Occupation number vector:
l	2j	2mj	Occ
0	1	-1	0.5   0   0   0   0   0   0   0   0
0	1	1	0.5   0   0   0   0   0   0   0   0
1	1	-1	
1	1	1	
1	3	-3	
1	3	-1	
1	3	1	
1	3	3	
2	3	-3	
2	3	-1	
2	3	1	
2	3	3	
2	5	-5	
2	5	-3	
2	5	-1	
2	5	1	
2	5	3	
2	5	5	
Highest occupied irrep: 2
Total number of electrons: 1

Maximum memory cost (2e part) in SCF and amfi calculation: 0.00111056864261627 GB.
1e-integral finished in 0 seconds.
2e-integral finished in 0.03 seconds.
2e-integral-Gaunt finished in 0.08 seconds.


Start Dirac Hartree-Fock iterations...
with SCF convergence = 1e-08

Iter #1 maximum density difference: 0.0502673048117581

SCF converges after 1 iterations.

	Orbital		Energy(in hartree)
	*******		******************
	1		-0.500004787483762
	2		-0.0850672113072289
	3		0.411413566782255
	4		1.91963776885519
	5		6.49124019725774
	6		21.2196170548258
	7		74.307435014668
	8		305.056417603089
	9		1720.1502456651
Final DHF energy is -0.343748010620561 hartree.
DHF iterations finished in 0.01 seconds.


ATTENTION! Since gaunt terms are included in SCF, they are automatically calculated in amfi integrals.

(624, 124)
/home/xuwa0145/tools/amfso/amf_pyscf.exe
/home/xuwa0145/tools/amfso/amf_pyscf.exe
(624, 624)
624 124
14 110
(624, 124)
(624, 14) (624, 110)
(1736, 15376)
0 124 14 124
EOM-CCSD root 0 E = 0.1302465238410657  qpwt = 0.934565  conv = True
EOM-CCSD root 1 E = 0.1302465238410666  qpwt = 0.934565  conv = True
EOM-CCSD root 2 E = 0.1332548715181084  qpwt = 0.949453  conv = True
EOM-CCSD root 3 E = 0.133254871606571  qpwt = 0.949453  conv = True
EOM-CCSD root 4 E = 0.1655026001303714  qpwt = 0.928561  conv = True
EOM-CCSD root 5 E = 0.1655026001303723  qpwt = 0.928561  conv = True
EOM-CCSD root 6 E = 0.1685512326884192  qpwt = 0.924691  conv = True
EOM-CCSD root 7 E = 0.1685512326884193  qpwt = 0.924691  conv = True
EOM-CCSD root 8 E = 0.202581215155558  qpwt = 0.921284  conv = True
EOM-CCSD root 9 E = 0.2025812151555582  qpwt = 0.921284  conv = True
EOM-CCSD root 10 E = 0.2209072463369958  qpwt = 0.92383  conv = True
EOM-CCSD root 11 E = 0.2209072463369959  qpwt = 0.92383  conv = True
